# vtk DataFile Version 3.0
#This file was generated by the deal.II library on 2022/6/11 at 12:22:56
ASCII
DATASET UNSTRUCTURED_GRID

POINTS 8 double
0 0 0
1 0 0
0 1 0
1 1 0
0 0 1
1 0 1
0 1 1
1 1 1

CELLS 1 9
8	0	1	3	2	4	5	7	6

CELL_TYPES 1
 12
POINT_DATA 8
SCALARS solution double 1
LOOKUP_TABLE default
51 51 51 51 51 51 51 51 
